Program Version,EnergyPlus, Version 9.5.0-de239b2e5f, YMD=2022.10.29 21:01
1,5,Environment Title[],Latitude[deg],Longitude[deg],Time Zone[],Elevation[m]
2,8,Day of Simulation[],Month[],Day of Month[],DST Indicator[1=yes 0=no],Hour[],StartMinute[],EndMinute[],DayType
3,5,Cumulative Day of Simulation[],Month[],Day of Month[],DST Indicator[1=yes 0=no],DayType  ! When Daily Report Variables Requested
4,2,Cumulative Days of Simulation[],Month[]  ! When Monthly Report Variables Requested
5,1,Cumulative Days of Simulation[] ! When Run Period Report Variables Requested
6,1,Calendar Year of Simulation[] ! When Annual Report Variables Requested
7,1,Environment,Site Outdoor Air Drybulb Temperature [C] !TimeStep
8,1,ZONE ONE,Zone Windows Total Transmitted Solar Radiation Rate [W] !TimeStep
9,1,ZN001:WALL001,Surface Outside Face Sunlit Fraction [] !TimeStep
10,1,ZN001:WALL001,Surface Outside Face Incident Solar Radiation Rate per Area [W/m2] !TimeStep
11,1,ZN001:WALL001:WIN001,Surface Outside Face Sunlit Fraction [] !TimeStep
12,1,ZN001:WALL001:WIN001,Surface Outside Face Incident Solar Radiation Rate per Area [W/m2] !TimeStep
13,1,ZN001:WALL001:WIN001,Surface Window Transmitted Solar Radiation Rate [W] !TimeStep
14,1,ZN001:WALL001,Surface Inside Face Temperature [C] !TimeStep
15,1,ZN001:WALL001,Surface Outside Face Temperature [C] !TimeStep
16,1,ZN001:WALL001:WIN001,Surface Inside Face Temperature [C] !TimeStep
17,1,ZN001:WALL001:WIN001,Surface Outside Face Temperature [C] !TimeStep
18,1,ZONE ONE,Zone Mean Air Temperature [C] !TimeStep
End of Data Dictionary
1,RUN PERIOD 1,  41.98, -87.92,  -6.00, 201.00
2,1, 1, 1, 0, 1, 0.00,15.00,Tuesday
7,-4.324999999999999
8,0.0
9,0.0
10,0.0
11,0.0
12,0.0
13,0.0
14,9.097733723512551
15,-5.8383545149303519
16,6.238029916166397
17,-3.8454685041967879
18,9.635329095865619
2,1, 1, 1, 0, 1,15.00,30.00,Tuesday
7,-6.949999999999999
8,0.0
9,0.0
10,0.0
11,0.0
12,0.0
13,0.0
14,8.91005198292571
15,-8.305199827627604
16,5.638929977605642
17,-5.932769782306991
18,9.52700555119026
2,1, 1, 1, 0, 1,30.00,45.00,Tuesday
7,-9.575
8,0.0
9,0.0
10,0.0
11,0.0
12,0.0
13,0.0
14,8.702062245737999
15,-10.779959665424915
16,5.032420825471604
17,-8.026086638230482
18,9.387677154398702
2,1, 1, 1, 0, 1,45.00,60.00,Tuesday
7,-12.2
8,0.0
9,0.0
10,0.0
11,0.0
12,0.0
13,0.0
14,8.478262727847254
15,-13.261369667415919
16,4.410503788063238
17,-10.126811416308556
18,9.227287100675364
2,1, 1, 1, 0, 2, 0.00,15.00,Tuesday
7,-12.075
8,0.0
9,0.0
10,0.0
11,0.0
12,0.0
13,0.0
14,8.399616032013093
15,-13.06190934008236
16,4.334196529994074
17,-9.96306257661547
18,9.08279768757162
2,1, 1, 1, 0, 2,15.00,30.00,Tuesday
7,-11.95
8,0.0
9,0.0
10,0.0
11,0.0
12,0.0
13,0.0
14,8.308235237984782
15,-12.88504701910331
16,4.2906932463041589
17,-9.820724755540028
18,8.970473395475219
2,1, 1, 1, 0, 2,30.00,45.00,Tuesday
7,-11.825
8,0.0
9,0.0
10,0.0
11,0.0
12,0.0
13,0.0
14,8.23412634554682
15,-12.707049136956537
16,4.253270107078947
17,-9.677899314321849
18,8.88419517893753
2,1, 1, 1, 0, 2,45.00,60.00,Tuesday
7,-11.7
8,0.0
9,0.0
10,0.0
11,0.0
12,0.0
13,0.0
14,8.171020684657562
15,-12.529145073289195
16,4.228545390963063
17,-9.532453549469608
18,8.81267664882855
2,1, 1, 1, 0, 3, 0.00,15.00,Tuesday
7,-11.549999999999999
8,0.0
9,0.0
10,0.0
11,0.0
12,0.0
13,0.0
14,8.109560917321592
15,-12.401432567535018
16,4.212944457851563
17,-9.379454448022557
18,8.747128357974454
2,1, 1, 1, 0, 3,15.00,30.00,Tuesday
7,-11.399999999999999
8,0.0
9,0.0
10,0.0
11,0.0
12,0.0
13,0.0
14,8.051059429971348
15,-12.275016735926103
16,4.1990344797508218
17,-9.226156988818787
18,8.68342755258696
2,1, 1, 1, 0, 3,30.00,45.00,Tuesday
7,-11.25
8,0.0
9,0.0
10,0.0
11,0.0
12,0.0
13,0.0
14,7.993309796213936
15,-12.150037175400613
16,4.186773847554946
17,-9.0725426182521
18,8.620520837717324
2,1, 1, 1, 0, 3,45.00,60.00,Tuesday
7,-11.1
8,0.0
9,0.0
10,0.0
11,0.0
12,0.0
13,0.0
14,7.936037641379393
15,-12.026547065054054
16,4.175130461348999
17,-8.91886776936201
18,8.558372302689874
2,1, 1, 1, 0, 4, 0.00,15.00,Tuesday
7,-11.1
8,0.0
9,0.0
10,0.0
11,0.0
12,0.0
13,0.0
14,7.874918792450616
15,-12.000508784331514
16,4.111216227913246
17,-8.966294269636478
18,8.49606153863473
2,1, 1, 1, 0, 4,15.00,30.00,Tuesday
7,-11.1
8,0.0
9,0.0
10,0.0
11,0.0
12,0.0
13,0.0
14,7.814207668483517
15,-11.975467144204542
16,4.050729952775214
17,-9.012152039107491
18,8.433223135584106
2,1, 1, 1, 0, 4,30.00,45.00,Tuesday
7,-11.1
8,0.0
9,0.0
10,0.0
11,0.0
12,0.0
13,0.0
14,7.753290267689284
15,-11.951846548426842
16,3.9906253132691065
17,-9.056864786958272
18,8.370012554576097
2,1, 1, 1, 0, 4,45.00,60.00,Tuesday
7,-11.1
8,0.0
9,0.0
10,0.0
11,0.0
12,0.0
13,0.0
14,7.692296796589139
15,-11.92951961472095
16,3.930735011031288
17,-9.100362834778594
18,8.306693822731076
2,1, 1, 1, 0, 5, 0.00,15.00,Tuesday
7,-10.975
8,0.0
9,0.0
10,0.0
11,0.0
12,0.0
13,0.0
14,7.6368928546734529
15,-11.80780607676776
16,3.9090675361458695
17,-9.016068207998956
18,8.244559719963626
2,1, 1, 1, 0, 5,15.00,30.00,Tuesday
7,-10.85
8,0.0
9,0.0
10,0.0
11,0.0
12,0.0
13,0.0
14,7.5817405965976489
15,-11.686144730945732
16,3.885019903856005
17,-8.923564655911833
18,8.18410411557395
2,1, 1, 1, 0, 5,30.00,45.00,Tuesday
7,-10.725
8,0.0
9,0.0
10,0.0
11,0.0
12,0.0
13,0.0
14,7.527676472958328
15,-11.564459288675059
16,3.861291837425483
17,-8.830202518329998
18,8.125068528289783
2,1, 1, 1, 0, 5,45.00,60.00,Tuesday
7,-10.6
8,0.0
9,0.0
10,0.0
11,0.0
12,0.0
13,0.0
14,7.474508013392775
15,-11.442782982027638
16,3.8384145871926877
17,-8.736596317345004
18,8.067051939593082
2,1, 1, 1, 0, 6, 0.00,15.00,Tuesday
7,-10.6
8,0.0
9,0.0
10,0.0
11,0.0
12,0.0
13,0.0
14,7.414623564486368
15,-11.443928078182643
16,3.7872065922834965
17,-8.739744003920578
18,8.008430168018015
2,1, 1, 1, 0, 6,15.00,30.00,Tuesday
7,-10.6
8,0.0
9,0.0
10,0.0
11,0.0
12,0.0
13,0.0
14,7.355388497024109
15,-11.445039360344606
16,3.7371458771385166
17,-8.749292689259505
18,7.948514999226963
2,1, 1, 1, 0, 6,30.00,45.00,Tuesday
7,-10.6
8,0.0
9,0.0
10,0.0
11,0.0
12,0.0
13,0.0
14,7.295634160831445
15,-11.446192056604052
16,3.6872806739244199
17,-8.759388617043783
18,7.887618206293632
2,1, 1, 1, 0, 6,45.00,60.00,Tuesday
7,-10.6
8,0.0
9,0.0
10,0.0
11,0.0
12,0.0
13,0.0
14,7.2356057312707409
15,-11.447341511807526
16,3.63707744289826
17,-8.769621440272318
18,7.826268000623752
2,1, 1, 1, 0, 7, 0.00,15.00,Tuesday
7,-10.6
8,0.0
9,0.0
10,0.0
11,0.0
12,0.0
13,0.0
14,7.177424492180747
15,-11.425762726158279
16,3.57847683230284
17,-8.807190323713087
18,7.7650901522322679
2,1, 1, 1, 0, 7,15.00,30.00,Tuesday
7,-10.6
8,0.0
9,0.0
10,0.0
11,0.0
12,0.0
13,0.0
14,7.119171523921233
15,-11.405303471166592
16,3.522015523995151
17,-8.845142303194507
18,7.704407385236537
2,1, 1, 1, 0, 7,30.00,45.00,Tuesday
7,-10.6
8,0.0
9,0.0
10,0.0
11,0.0
12,0.0
13,0.0
14,7.0612332850492429
15,-11.385889192659724
16,3.4660832317126735
17,-8.882147104845388
18,7.644202143146724
2,1, 1, 1, 0, 7,45.00,60.00,Tuesday
7,-10.6
8,0.0
9,0.0
10,0.0
11,0.0
12,0.0
13,0.0
14,7.003612353746794
15,-11.367457504295363
16,3.4107091974103698
17,-8.918036542127482
18,7.584369394999942
2,1, 1, 1, 0, 8, 0.00,15.00,Tuesday
7,-10.45
8,0.0
9,0.0
10,0.0
11,0.0
12,0.0
13,0.0
14,6.945662983703945
15,-11.317142345138832
16,3.3835569745948534
17,-8.861514663260494
18,7.524667733473617
2,1, 1, 1, 0, 8,15.00,30.00,Tuesday
7,-10.3
8,215.58799802247436
9,1.0
10,22.819555959623899
11,1.0
12,22.819555959623899
13,215.58799802247436
14,7.018191883588466
15,-9.64297358925561
16,3.6387943449033175
17,-8.554464393548074
18,7.485835556956894
2,1, 1, 1, 0, 8,30.00,45.00,Tuesday
7,-10.15
8,1058.5392312131788
9,1.0
10,109.75755355442667
11,1.0
12,109.75755355442667
13,1058.5392312131788
14,7.447618624283177
15,-3.264878969923473
16,4.752510785787933
17,-7.54972561796842
18,7.526031543701774
2,1, 1, 1, 0, 8,45.00,60.00,Tuesday
7,-10.0
8,1924.8399544063869
9,1.0
10,195.8764694434918
11,1.0
12,195.8764694434918
13,1924.8399544063869
14,7.9885673797052869
15,3.2050121738951717
16,5.984886281777904
17,-6.555458849890101
18,7.653307319294291
2,1, 1, 1, 0, 9, 0.00,15.00,Tuesday
7,-9.725
8,2788.156804505051
9,1.0
10,278.97248314719988
11,1.0
12,278.97248314719988
13,2788.156804505051
14,8.475925944602741
15,8.387106255826254
16,7.233755412170126
17,-5.673526706900589
18,7.841924952680162
2,1, 1, 1, 0, 9,15.00,30.00,Tuesday
7,-9.45
8,3698.191694963624
9,1.0
10,364.91995730569456
11,1.0
12,364.91995730569456
13,3698.191694963624
14,8.964739574513727
15,13.460140247711367
16,8.602021047356346
17,-4.773749267831477
18,8.079826006005734
2,1, 1, 1, 0, 9,30.00,45.00,Tuesday
7,-9.175
8,4300.267320680403
9,1.0
10,420.35879993239237
11,1.0
12,420.35879993239237
13,4300.267320680403
14,9.320684362548619
15,16.216418199429783
16,9.505004090267562
17,-4.212239549162803
18,8.344783150503517
2,1, 1, 1, 0, 9,45.00,60.00,Tuesday
7,-8.9
8,4925.271017552962
9,1.0
10,478.00138373643099
11,1.0
12,478.00138373643099
13,4925.271017552962
14,9.735564700060385
15,19.210299047444317
16,10.393681256591777
17,-3.638765029529395
18,8.625751603733518
2,1, 1, 1, 0,10, 0.00,15.00,Tuesday
7,-8.350000000000002
8,5563.47927964936
9,1.0
10,536.9185644770597
11,1.0
12,536.9185644770597
13,5563.47927964936
14,10.10182588423026
15,20.323406228133334
16,11.318302704541168
17,-3.009164064968388
18,8.923276939564488
2,1, 1, 1, 0,10,15.00,30.00,Tuesday
7,-7.800000000000001
8,6223.735720380122
9,1.0
10,598.0969199229219
11,1.0
12,598.0969199229219
13,6223.735720380122
14,10.50099999779474
15,21.57309586070311
16,12.259713180790755
17,-2.3757199328654226
18,9.064592340652802
2,1, 1, 1, 0,10,30.00,45.00,Tuesday
7,-7.25
8,6656.8716086781919
9,1.0
10,637.6133352894237
11,1.0
12,637.6133352894237
13,6656.8716086781919
14,10.775777039003055
15,21.628461901540765
16,12.941436547711647
17,-1.9184688956621017
18,9.337637387201518
2,1, 1, 1, 0,10,45.00,60.00,Tuesday
7,-6.7
8,7083.627635401503
9,1.0
10,676.6412284283772
11,1.0
12,676.6412284283772
13,7083.627635401503
14,11.042698884201066
15,21.78497143288362
16,13.563000840220184
17,-1.4657660742134909
18,9.540197835763486
2,1, 1, 1, 0,11, 0.00,15.00,Tuesday
7,-6.275
8,7502.619881928808
9,1.0
10,715.0112779846514
11,1.0
12,715.0112779846514
13,7502.619881928808
14,11.462976036374789
15,23.88472801679262
16,14.251280435797242
17,-0.8031895096228254
18,10.007114466019513
2,1, 1, 1, 0,11,15.00,30.00,Tuesday
7,-5.85
8,7911.749570951006
9,1.0
10,752.5077794605232
11,1.0
12,752.5077794605232
13,7911.749570951006
14,11.936461474146565
15,25.8219975225909
16,14.99286842482627
17,-0.15045699107270139
18,10.443233666639552
2,1, 1, 1, 0,11,30.00,45.00,Tuesday
7,-5.425
8,7790.15687674608
9,1.0
10,742.5988714321785
11,1.0
12,742.5988714321785
13,7790.15687674608
14,12.22816700454933
15,25.67396456284298
16,15.259004519337168
17,0.16964600740436709
18,10.84959185790014
2,1, 1, 1, 0,11,45.00,60.00,Tuesday
7,-5.0
8,7616.415097401759
9,1.0
10,727.8169025450712
11,1.0
12,727.8169025450712
13,7616.415097401759
14,12.506346863889659
15,25.445910547757959
16,15.428156434799462
17,0.4612676306572894
18,11.209726659273838
2,1, 1, 1, 0,12, 0.00,15.00,Tuesday
7,-4.575
8,7317.631879000259
9,1.0
10,700.3759009170325
11,1.0
12,700.3759009170325
13,7317.631879000259
14,12.70679502166246
15,24.70409281395781
16,15.456714131165768
17,0.7074044711273473
18,11.51967614233812
2,1, 1, 1, 0,12,15.00,30.00,Tuesday
7,-4.15
8,7096.045470553083
9,1.0
10,681.6705029034473
11,1.0
12,681.6705029034473
13,7096.045470553083
14,12.927329074686055
15,24.374504535220774
16,15.54662787295564
17,1.0135842472086552
18,11.792113690351025
2,1, 1, 1, 0,12,30.00,45.00,Tuesday
7,-3.7249999999999998
8,6229.736928429492
9,1.0
10,602.01865277251
11,1.0
12,602.01865277251
13,6229.736928429492
14,12.841436619323522
15,21.345801547336554
16,14.985826056071119
17,0.9073553903490392
18,12.002437371680827
2,1, 1, 1, 0,12,45.00,60.00,Tuesday
7,-3.3
8,5087.904404187093
9,1.0
10,493.55004396206007
11,1.0
12,493.55004396206007
13,5087.904404187093
14,12.646701785808247
15,17.168844271783138
16,13.98918059035816
17,0.5835651210107926
18,12.117972157322696
2,1, 1, 1, 0,13, 0.00,15.00,Tuesday
7,-3.0249999999999996
8,4201.06339395177
9,1.0
10,412.335026418112
11,1.0
12,412.335026418112
13,4201.06339395177
14,12.512642775291
15,14.325883305625835
16,13.186574633196358
17,0.3797319686176479
18,12.157226648575529
2,1, 1, 1, 0,13,15.00,30.00,Tuesday
7,-2.75
8,3076.8921224314046
9,1.0
10,305.94037763660148
11,1.0
12,305.94037763660148
13,3076.8921224314046
14,12.176349831620092
15,10.153599889508938
16,12.009178182597566
17,-0.030261078104786067
18,12.13211476893597
2,1, 1, 1, 0,13,30.00,45.00,Tuesday
7,-2.475
8,2809.093589913503
9,1.0
10,281.0763483922329
11,1.0
12,281.0763483922329
13,2809.093589913503
14,12.149030489854362
15,9.64247930895542
16,11.71979678903881
17,0.12183465897578572
18,12.086263470107971
2,1, 1, 1, 0,13,45.00,60.00,Tuesday
7,-2.2
8,2546.873670955547
9,1.0
10,256.7721209415886
11,1.0
12,256.7721209415886
13,2546.873670955547
14,12.109570727861387
15,9.036462402215708
16,11.532094276836404
17,0.30055658517790109
18,12.046879295677489
2,1, 1, 1, 0,14, 0.00,15.00,Tuesday
7,-1.9250000000000003
8,2080.5367602707817
9,1.0
10,210.73276284570657
11,1.0
12,210.73276284570657
13,2080.5367602707817
14,11.945521302694227
15,7.490134306182299
16,11.07033601318875
17,0.27822948082689438
18,12.009149887283837
2,1, 1, 1, 0,14,15.00,30.00,Tuesday
7,-1.6500000000000002
8,1848.188229985294
9,1.0
10,189.38488290342594
11,1.0
12,189.38488290342594
13,1848.188229985294
14,11.905114569854664
15,7.088789242746237
16,10.856024001606329
17,0.44588485964800386
18,11.973519223610355
2,1, 1, 1, 0,14,30.00,45.00,Tuesday
7,-1.375
8,1762.64852825266
9,1.0
10,179.3940297802914
11,1.0
12,179.3940297802914
13,1762.64852825266
14,11.888748241649722
15,7.213470711600802
16,10.813639131159733
17,0.6958347078273164
18,11.942006145911775
2,1, 1, 1, 0,14,45.00,60.00,Tuesday
7,-1.1
8,1676.1315823344044
9,1.0
10,169.43349014176136
11,1.0
12,169.43349014176136
13,1676.1315823344044
14,11.868387272219243
15,7.314565198939162
16,10.763815031942386
17,0.9442604310487468
18,11.91418985249719
2,1, 1, 1, 0,15, 0.00,15.00,Tuesday
7,-1.1
8,1764.2336451753204
9,1.0
10,178.15692317953907
11,1.0
12,178.15692317953907
13,1764.2336451753204
14,11.933753643436545
15,8.134126138466466
16,10.870803208016583
17,1.0726850949337177
18,11.894756249159782
2,1, 1, 1, 0,15,15.00,30.00,Tuesday
7,-1.1
8,1657.4490571935765
9,1.0
10,166.40516310952945
11,1.0
12,166.40516310952945
13,1657.4490571935765
14,11.87574557743944
15,7.773122749392725
16,10.75609650612472
17,1.0382776030975265
18,11.87773576231946
2,1, 1, 1, 0,15,30.00,45.00,Tuesday
7,-1.1
8,1397.5312645014938
9,1.0
10,140.8967369711617
11,1.0
12,140.8967369711617
13,1397.5312645014938
14,11.73114547181531
15,6.560290549914363
16,10.43017627501979
17,0.8643665697849201
18,11.851930959434905
2,1, 1, 1, 0,15,45.00,60.00,Tuesday
7,-1.1
8,1150.0543343479504
9,1.0
10,116.57355796743004
11,1.0
12,116.57355796743004
13,1150.0543343479504
14,11.620488060506382
15,5.366126713400637
16,10.098752912996702
17,0.6823216710979523
18,11.804969022599132
2,1, 1, 1, 0,16, 0.00,15.00,Tuesday
7,-1.1
8,912.7487358561132
9,1.0
10,93.14939272689483
11,1.0
12,93.14939272689483
13,912.7487358561132
14,11.498324136745302
15,4.318006180914181
16,9.805746599129634
17,0.5886272291579644
18,11.737720592721726
2,1, 1, 1, 0,16,15.00,30.00,Tuesday
7,-1.1
8,566.63606910387
9,1.0
10,57.94047897402063
11,1.0
12,57.94047897402063
13,566.63606910387
14,11.282733542238568
15,2.200097806028284
16,9.351020728787717
17,0.3671664530148746
18,11.644374070949534
2,1, 1, 1, 0,16,30.00,45.00,Tuesday
7,-1.1
8,439.3280485111739
9,1.0
10,45.38251793443488
11,1.0
12,45.38251793443488
13,439.3280485111739
14,11.194168640277083
15,1.5965689443478493
16,9.141483790594009
17,0.36068506744641129
18,11.54017297431511
2,1, 1, 1, 0,16,45.00,60.00,Tuesday
7,-1.1
8,306.6800834822592
9,1.0
10,32.02625108222755
11,1.0
12,32.02625108222755
13,306.6800834822592
14,11.065140360032374
15,0.7415744417857096
16,8.952360618262901
17,0.35521095959268225
18,11.4381359668003
2,1, 1, 1, 0,17, 0.00,15.00,Tuesday
7,-1.1
8,168.21359625377557
9,1.0
10,17.762198626050539
11,1.0
12,17.762198626050539
13,168.21359625377557
14,10.912281302853318
15,-0.49847383614454907
16,8.711841505016878
17,0.24197129595677326
18,11.336268505127047
2,1, 1, 1, 0,17,15.00,30.00,Tuesday
7,-1.1
8,0.0
9,0.0
10,0.0
11,0.0
12,0.0
13,0.0
14,10.708512883965187
15,-2.3303988094752476
16,8.393475494900486
17,-0.002425529313654806
18,11.22077659426057
2,1, 1, 1, 0,17,30.00,45.00,Tuesday
7,-1.1
8,0.0
9,0.0
10,0.0
11,0.0
12,0.0
13,0.0
14,10.642453262227978
15,-2.4608621155775807
16,8.30467040339795
17,0.0429856353142668
18,11.107965042094986
2,1, 1, 1, 0,17,45.00,60.00,Tuesday
7,-1.1
8,0.0
9,0.0
10,0.0
11,0.0
12,0.0
13,0.0
14,10.559779508945992
15,-2.6425299259493659
16,8.258831581743323
17,0.10283526979685576
18,11.012663042011197
2,1, 1, 1, 0,18, 0.00,15.00,Tuesday
7,-1.25
8,0.0
9,0.0
10,0.0
11,0.0
12,0.0
13,0.0
14,10.488713136548327
15,-2.791589325945412
16,8.160975313702238
17,-0.03812152502314348
18,10.93499123333104
2,1, 1, 1, 0,18,15.00,30.00,Tuesday
7,-1.4
8,0.0
9,0.0
10,0.0
11,0.0
12,0.0
13,0.0
14,10.423429273586592
15,-2.94409336022109
16,8.076511134082694
17,-0.17207939871536838
18,10.868943544259679
2,1, 1, 1, 0,18,30.00,45.00,Tuesday
7,-1.5499999999999999
8,0.0
9,0.0
10,0.0
11,0.0
12,0.0
13,0.0
14,10.362389168394858
15,-3.0962810083728344
16,7.9968283951808989
17,-0.3051476722982329
18,10.808808347010564
2,1, 1, 1, 0,18,45.00,60.00,Tuesday
7,-1.7
8,0.0
9,0.0
10,0.0
11,0.0
12,0.0
13,0.0
14,10.303225238849917
15,-3.2486355855932866
16,7.920018364506063
17,-0.43757094717648217
18,10.751234524124718
2,1, 1, 1, 0,19, 0.00,15.00,Tuesday
7,-1.825
8,0.0
9,0.0
10,0.0
11,0.0
12,0.0
13,0.0
14,10.266069818371099
15,-3.1157395839077415
16,7.820743413671437
17,-0.6477831534908205
18,10.697918088785345
2,1, 1, 1, 0,19,15.00,30.00,Tuesday
7,-1.9500000000000002
8,0.0
9,0.0
10,0.0
11,0.0
12,0.0
13,0.0
14,10.22941969984599
15,-3.062345267904694
16,7.737648174869264
17,-0.8419854319557771
18,10.650819535389595
2,1, 1, 1, 0,19,30.00,45.00,Tuesday
7,-2.075
8,0.0
9,0.0
10,0.0
11,0.0
12,0.0
13,0.0
14,10.186927552878827
15,-3.139873835963833
16,7.677388249543924
17,-0.9725098001433707
18,10.608598773780824
2,1, 1, 1, 0,19,45.00,60.00,Tuesday
7,-2.2
8,0.0
9,0.0
10,0.0
11,0.0
12,0.0
13,0.0
14,10.147968267715634
15,-3.1293256703851348
16,7.5985083685591239
17,-1.1557209965554876
18,10.568175403554405
2,1, 1, 1, 0,20, 0.00,15.00,Tuesday
7,-1.9250000000000003
8,0.0
9,0.0
10,0.0
11,0.0
12,0.0
13,0.0
14,10.125612076623366
15,-2.831058513170282
16,7.626505285819576
17,-0.9614111042127433
18,10.530533012031843
2,1, 1, 1, 0,20,15.00,30.00,Tuesday
7,-1.6500000000000002
8,0.0
9,0.0
10,0.0
11,0.0
12,0.0
13,0.0
14,10.10264884471594
15,-2.5355410199206
16,7.651829245306146
17,-0.7554225606215823
18,10.496320528332888
2,1, 1, 1, 0,20,30.00,45.00,Tuesday
7,-1.375
8,0.0
9,0.0
10,0.0
11,0.0
12,0.0
13,0.0
14,10.081687116736712
15,-2.2411282375885448
16,7.678545288121768
17,-0.5469720198075834
18,10.465034519728724
2,1, 1, 1, 0,20,45.00,60.00,Tuesday
7,-1.1
8,0.0
9,0.0
10,0.0
11,0.0
12,0.0
13,0.0
14,10.062355135677075
15,-1.9478621221865178
16,7.707437173130984
17,-0.3361066047133363
18,10.435880637701738
2,1, 1, 1, 0,21, 0.00,15.00,Tuesday
7,-1.25
8,0.0
9,0.0
10,0.0
11,0.0
12,0.0
13,0.0
14,10.00494806122325
15,-2.217068892537845
16,7.671358621486206
17,-0.37427829030724527
18,10.402169651812807
2,1, 1, 1, 0,21,15.00,30.00,Tuesday
7,-1.4
8,0.0
9,0.0
10,0.0
11,0.0
12,0.0
13,0.0
14,9.948319946928616
15,-2.4272494910251396
16,7.6145692522136418
17,-0.45170352197567356
18,10.359383838888525
2,1, 1, 1, 0,21,30.00,45.00,Tuesday
7,-1.5499999999999999
8,0.0
9,0.0
10,0.0
11,0.0
12,0.0
13,0.0
14,9.879216791677529
15,-2.7556180526926976
16,7.571874271120123
17,-0.4731760510686627
18,10.30704315852553
2,1, 1, 1, 0,21,45.00,60.00,Tuesday
7,-1.7
8,0.0
9,0.0
10,0.0
11,0.0
12,0.0
13,0.0
14,9.804886113400452
15,-3.18902750900479
16,7.5297181040360219
17,-0.4611891241233934
18,10.247584333797735
2,1, 1, 1, 0,22, 0.00,15.00,Tuesday
7,-1.5499999999999999
8,0.0
9,0.0
10,0.0
11,0.0
12,0.0
13,0.0
14,9.793138143217814
15,-2.7231741881497966
16,7.4725992161133949
17,-0.488940483725969
18,10.193895881590846
2,1, 1, 1, 0,22,15.00,30.00,Tuesday
7,-1.4
8,0.0
9,0.0
10,0.0
11,0.0
12,0.0
13,0.0
14,9.772134788828954
15,-2.4076807082392386
16,7.454081400109374
17,-0.480078278432984
18,10.152838081351977
2,1, 1, 1, 0,22,30.00,45.00,Tuesday
7,-1.25
8,0.0
9,0.0
10,0.0
11,0.0
12,0.0
13,0.0
14,9.75092770857319
15,-2.194158510302993
16,7.449621237797487
17,-0.40476503573643188
18,10.121923987591116
2,1, 1, 1, 0,22,45.00,60.00,Tuesday
7,-1.1
8,0.0
9,0.0
10,0.0
11,0.0
12,0.0
13,0.0
14,9.733498789861818
15,-1.9233732087239218
16,7.4381269763080699
17,-0.3621321110705935
18,10.095819850264978
2,1, 1, 1, 0,23, 0.00,15.00,Tuesday
7,-1.25
8,0.0
9,0.0
10,0.0
11,0.0
12,0.0
13,0.0
14,9.675123626122737
15,-2.2265630636180937
16,7.341846957515827
17,-0.6414980748492098
18,10.064154397722345
2,1, 1, 1, 0,23,15.00,30.00,Tuesday
7,-1.4
8,0.0
9,0.0
10,0.0
11,0.0
12,0.0
13,0.0
14,9.618909133717223
15,-2.531300863910537
16,7.2335206426901099
17,-0.9321963966007161
18,10.02222746186829
2,1, 1, 1, 0,23,30.00,45.00,Tuesday
7,-1.5499999999999999
8,0.0
9,0.0
10,0.0
11,0.0
12,0.0
13,0.0
14,9.557767456361223
15,-2.8366908093740328
16,7.12312749018497
17,-1.224222499194866
18,9.971574747933842
2,1, 1, 1, 0,23,45.00,60.00,Tuesday
7,-1.7
8,0.0
9,0.0
10,0.0
11,0.0
12,0.0
13,0.0
14,9.492743846117694
15,-3.1424254237136788
16,7.008568606809376
17,-1.5180321063088514
18,9.915333395432585
2,1, 1, 1, 0,24, 0.00,15.00,Tuesday
7,-1.7
8,0.0
9,0.0
10,0.0
11,0.0
12,0.0
13,0.0
14,9.443091245622446
15,-3.1967791482511695
16,6.949336665556018
17,-1.5853603608857157
18,9.859108618162028
2,1, 1, 1, 0,24,15.00,30.00,Tuesday
7,-1.7
8,0.0
9,0.0
10,0.0
11,0.0
12,0.0
13,0.0
14,9.391505832681764
15,-3.2516429669982549
16,6.894414245968392
17,-1.6496145450129234
18,9.805707093759893
2,1, 1, 1, 0,24,30.00,45.00,Tuesday
7,-1.7
8,0.0
9,0.0
10,0.0
11,0.0
12,0.0
13,0.0
14,9.341167492176691
15,-3.3063999767479195
16,6.839354259535071
17,-1.7140630512073472
18,9.7549063477915
2,1, 1, 1, 0,24,45.00,60.00,Tuesday
7,-1.7
8,0.0
9,0.0
10,0.0
11,0.0
12,0.0
13,0.0
14,9.291711272389599
15,-3.3611620670992417
16,6.785209121015555
17,-1.7785430514638279
18,9.705570490968425
End of Data
 Number of Records Written=        1152
